CHEMS New Param
   10
    1CHEMS   R0    1   1.625   8.226   1.394
    1CHEMS   R1    2   1.699   8.386   1.181
    1CHEMS   R2    3   1.608   8.634   1.122
    1CHEMS   R3    4   1.874   8.685   1.095
    1CHEMS   R4    5   1.741   8.902   0.949
    1CHEMS   R5    6   1.897   8.785   0.896
    1CHEMS   C1    7   2.069   9.107   0.825
    1CHEMS   C2    8   1.885   9.470   0.770
    1CHEMS   ES    9   1.791   8.642   1.565
    1CHEMS   C3   10   2.078   8.949   1.770
  10.00000  10.00000  10.00000
