CHOL New Param
    9
    1CHOL   ROH    1   0.351   1.325   1.140
    1CHOL    R1    2   0.572   1.005   0.954
    1CHOL    R2    3   0.696   1.293   1.104
    1CHOL    R3    4   0.970   0.853   0.920
    1CHOL    R4    5   0.974   1.157   1.127
    1CHOL    R5    6   0.641   1.128   1.287
    1CHOL    R6    7   1.035   0.898   1.185
    1CHOL    C1    8   1.351   0.936   1.023
    1CHOL    C2    9   1.719   0.751   0.867
  15.00000  15.00000  18.00000
