[ moleculetype ]
; molname        nrexcl
DEXT             1


[ atoms ]
; id type resnr residue   atom  cgnr    charge     mass

1    SN2a     1    DEXT     R1  1      0.00000     54.00
2     TC4     1    DEXT     R2  2      0.00000     36.00
3     SC3     1    DEXT     R3  3      0.00000     54.00
4     TC4     1    DEXT     R4  4      0.00000     36.00
5    SX4e     1    DEXT     R5  5      0.00000     54.00
6     SP1     1    DEXT     R6  6      0.00000     54.00
7     SC3     1    DEXT     R7  7      0.00000     54.00
8     SC3     1    DEXT     R8  8      0.00000     54.00
9     TP1     1    DEXT     R9  9      0.00000     36.00
10    Q4n     1    DEXT     C1  10    -1.00000     54.00


[ bonds ]
;   i     j   funct   length   force.c.

; bond type 1
    1     2       1    0.244  8500.00           ; 1

; bond type 2
    2     3       1    0.238  8500.00           ; 2

; bond type 3
    3     4       1    0.265  8500.00           ; 3

; bond type 4
    1     3       1    0.329  8500.00           ; 4

; bond type 5
    4     5       1    0.252  8500.00           ; 5

; bond type 6
    3     5       1    0.242  8500.00           ; 6

; bond type 7
    5     7       1    0.292  8500.00           ; 7

; bond type 8
    5     6       1    0.245  8500.00           ; 8

; bond type 9
    6     7       1    0.250  8500.00           ; 9

; bond type 10
    7     8       1    0.278  8500.00           ; 10

; bond type 11
    7     9       1    0.248  8500.00           ; 11

; bond type 12
    8     9       1    0.230  8500.00           ; 12

; bond type 13
    9    10       1    0.258  8500.00           ; 13


[ angles ]
;   i     j     k   funct     angle   force.c.

; angle type 1
    3     5     7       2    119.58    672.22           ; 1

; angle type 2
    7     9    10       2     80.08    488.57           ; 2

; angle type 3
    8     9    10       2     85.35    960.00           ; 3

; angle type 5
    4     5     6       2    138.69    995.31           ; 5

; angle type 6
    1     5     9       2    158.82    687.07           ; 6

; angle type 7
    2     5     8       2    173.75    960.00           ; 7

#ifdef POSRES
[ position_restraints ]
;  i funct       fcx        fcy        fcz
   1    1       1000       1000       1000
   2    1       1000       1000       1000
   3    1       1000       1000       1000
   4    1       1000       1000       1000
   5    1       1000       1000       1000
   6    1       1000       1000       1000
   7    1       1000       1000       1000
   8    1       1000       1000       1000
   9    1       1000       1000       1000
  10    1       1000       1000       1000
#endif
