This is an auto generated system
   10
    1DEXT    R1    1   5.152   5.209   5.752
    1DEXT    R2    2   5.058   5.358   5.510
    1DEXT    R3    3   5.198   5.581   5.660
    1DEXT    R4    4   5.448   5.452   5.814
    1DEXT    R5    5   5.432   5.481   5.556
    1DEXT    R6    6   5.410   5.608   5.343
    1DEXT    R7    7   5.619   5.369   5.355
    1DEXT    R8    8   5.891   5.480   5.527
    1DEXT    R9    9   5.822   5.575   5.282
    1DEXT    C1   10   5.964   5.841   5.554
  11.04784  11.04784  11.04784
