[ moleculetype ]
; molname        nrexcl
GRI              1


[ atoms ]
; id type resnr residue   atom  cgnr    charge     mass

1     SX2     1     GRI    SX2  1      0.00000     54.00
2     TC5     1     GRI    TC5  2      0.00000     36.00
3     TC5     1     GRI    TC5  3      0.00000     36.00
4     TC5     1     GRI    TC5  4      0.00000     36.00
5    TN2a     1     GRI   TN2a  5      0.00000     36.00
6    TN2a     1     GRI   TN2a  6      0.00000     36.00
7    SN4a     1     GRI   SN4a  7      0.00000     54.00
8    SN4a     1     GRI   SN4a  8      0.00000     54.00
9     TC5     1     GRI    TC5  9      0.00000     36.00
10    TC5     1     GRI    TC5  10     0.00000     36.00
11   SN4a     1     GRI   SN4a  11     0.00000     54.00
12   TN2a     1     GRI   TN2a  12     0.00000     36.00


[ constraints ]
;   i     j   funct   length

; constraint type 1
    2     3       1    0.213      ; 1

; constraint type 2
    3     4       1    0.214      ; 2

; constraint type 3
    2     4       1    0.208      ; 3

; constraint type 4
    7     9       1    0.261      ; 4

; constraint type 5
    7    10       1    0.246      ; 5

; constraint type 6
    9    11       1    0.244      ; 6

; constraint type 7
   10    11       1    0.320      ; 7


[ bonds ]
;   i     j   funct   length   force.c.

; bond type 1
    1     2       1    0.217  11068.27           ; 1

; bond type 2
    2     5       1    0.233  8560.11           ; 2

; bond type 3
    3     6       1    0.215  11591.15           ; 3

; bond type 4
    4     7       1    0.188  11423.09           ; 4

; bond type 5
    4     8       1    0.239  7961.21           ; 5

; bond type 6
    7     8       1    0.255  6838.76           ; 6

; bond type 7
    9    12       1    0.219  10606.38           ; 7


