GRI Param
   12
    1GRI    SX2    1   1.247   1.847   1.637 -0.0330 -0.0929 -0.4821
    1GRI    TC5    2   1.369   1.580   1.546  0.2145  0.0761  0.0898
    1GRI    TC5    3   1.313   1.430   1.763  0.1594 -0.0881 -0.0370
    1GRI    TC5    4   1.551   1.563   1.762  0.2099 -0.1759  0.0762
    1GRI   TN2a    5   1.286   1.559   1.267 -0.1093  0.1397  0.0143
    1GRI   TN2a    6   1.307   1.472   2.040 -0.1082  0.0047  0.3845
    1GRI   SN4a    7   1.776   1.621   1.632 -0.0366 -0.1929  0.1275
    1GRI   SN4a    8   1.689   1.745   1.874  0.0925  0.2625 -0.1650
    1GRI    TC5    9   2.038   1.701   1.522 -0.0491  0.0274  0.2534
    1GRI    TC5   10   1.750   1.541   1.359 -0.5185  0.4978 -0.0493
    1GRI   SN4a   11   1.965   1.686   1.246  0.2956 -0.4495  0.1785
    1GRI   TN2a   12   2.327   1.694   1.456 -0.2764  0.2275 -0.2202
   8.74802   8.74802   8.74802
