IBU Param
    5
    1IBU     R1    1   1.202   1.199   1.563  0.0894 -0.0693  0.1220
    1IBU     R2    2   1.451   1.505   1.232 -0.2183 -0.0356 -0.0315
    1IBU     R3    3   1.190   1.108   1.291  0.3329 -0.1758 -0.1015
    1IBU     R4    4   1.333   1.267   1.111 -0.0947  0.2390 -0.0894
    1IBU     R5    5   1.096   1.144   1.030 -0.0663  0.0766  0.0703
   2.52674   2.52674   2.52674
