; GENERATED WITH Auto_Martini M3FF for NFD
; Developed by: Kiran Kanekal, Tristan Bereau, and Andrew Abi-Mansour
; updated to Martini 3 force field by Magdalena Szczuka
; supervised by Matthieu Chavent, Pierre Poulain and Paulo C. T. Souza 
; SMILES code : CC1=C(C(C(=C(N1)C)C(=O)OC)C2=CC=CC=C2[N+](=O)[O-])C(=O)OC


[moleculetype]
; molname       nrexcl
  NFD           2

[atoms]
; id      type   resnr residue atom    cgnr    charge  mass ;  smiles    ; atom_num
   1       SN3d    1   NFD     N01       1        0    54   ;   CCN      ; atoms: C0, C1, N6, ; ALOGPS defined bead
   2       TC1     1   NFD     C01       2        0    36   ;   CC       ; atoms: C2, C3, ; ALOGPS defined bead
   3       SC1     1   NFD     C02       3        0    54   ;   C=CC     ; atoms: C4, C5, C7, ; ALOGPS defined bead
   4       TN6a    1   NFD     N02       4        0    36   ;   C=O      ; atoms: C8, O9, ; ALOGPS defined bead
   5       TP3a    1   NFD     P01       5        0    36   ;   CO       ; atoms: O10, C11, ; ALOGPS defined bead
   6       TC3     1   NFD     P02       6        0    36   ;   C=C      ; atoms: C12, C13, ; ALOGPS defined bead
   7       TC3     1   NFD     P03       7        0    36   ;   C=C      ; atoms: C14, C15, ; ALOGPS defined bead
   8       TC3     1   NFD     P04       8        0    36   ;   C=C      ; atoms: C16, C17, ; ALOGPS defined bead
   9       SN3a    1   NFD     N03       9        0    54   ;   O=[N+][O-] ; atoms: N18, O19, O20, ; ALOGPS defined bead
   10      TN6a    1   NFD     N04       10       0    36   ;   C=O      ; atoms: C21, O22, ; ALOGPS defined bead
   11      TP3a    1   NFD     P05       11       0    36   ;   CO       ; atoms: O23, C24, ; ALOGPS defined bead


[bonds]
;  i   j     funct   length   force.c.
   1   2     1       0.33       10000.00
   1   3     1       0.39       5000.00
   2   3     1       0.37       100000.00
   2   6     1       0.23       25000.00
   2   10    1       0.22       25000.00
   3   4     1       0.32       5000.00
   4   5     1       0.24       25000.00
   6   7     1       0.26       25000.00
   6   8     1       0.31       25000.00
   7   8     1       0.26       25000.00
   8   9     1       0.23       100000.00
   10  11    1       0.24       25000.00
[constraints]
;  i   j     funct   length

[angles]
;  i  j  k    funct  angle  force.c.
   1  2  3       1    67.7   100.0
   1  2  4       1    122.3  100.0
   1  2  5       1    114.8  100.0
   1  2  6       1    149.6  100.0
   1  2  7       1    134.1  100.0
   1  2  8       1    104.5  100.0
   1  2  9       1    73.5   100.0
   1  2 10       1    80.8   100.0
   1  2 11       1    71.6   100.0
   1  3  4       1    103.9   45.0
   1  3  5       1    133.9   45.0
   1  3  6       1    71.7    45.0
   1  3  7       1    78.1    45.0
   1  3  8       1    72.2    45.0
   1  3  9       1    61.3    25.0
   1  3 10       1    39.8    45.0
   1  3 11       1    30.7    45.0
   1  4  5       1    123.2   45.0
   1  6  7       1    132.5  100.0
   1  6  8       1    82.3   100.0
   1  7  8       1    44.0   100.0
   1  8  9       1    33.0   100.0
   1 10 11       1    93.9    45.0
   2  6  4       1    63.8   100.0
   2  6  5       1    82.0   100.0
   2  6  9       1    63.5   250.0
   2  6 10       1    43.2   100.0
   2  6 11       1    61.6   100.0
   2 10  4       1    14.1    45.0
   2 10  5       1    12.7    45.0
   2 10  7       1    66.1    45.0
   2 10  8       1    56.2    45.0
   2 10  9       1    47.4   250.0
   3  4  7       1    116.8   45.0
   3  4  8       1    88.4    45.0
   3  4  9       1    60.8    45.0
   3  4 11       1    80.2    45.0
   4  5  7       1    60.3   100.0
   4  5  8       1    64.9   100.0
   4  5  9       1    63.0   250.0
   4  5 11       1    34.1   100.0
   6  7 11       1    53.8   100.0
   6  8 11       1    63.6   100.0
   8  9 11       1    80.6    30.0

[dihedrals]
;  i  j  k  l  funct  angle  force.c.
   2  6  8  7    2    169.5  100.0
   4  6  7  8    2    77.8    50.0
   6  7  8 10    2    32.2    50.0
   6  8  7  9    2    0.0     10.0

#ifdef POSRES
[ position_restraints ]
;  i funct       fcx        fcy        fcz
   1    1       1000       1000       1000
   2    1       1000       1000       1000
   3    1       1000       1000       1000
   4    1       1000       1000       1000
   5    1       1000       1000       1000
   6    1       1000       1000       1000
   7    1       1000       1000       1000
   8    1       1000       1000       1000
   9    1       1000       1000       1000
  10    1       1000       1000       1000
  11    1       1000       1000       1000
#endif

