NFD generated from auto_martiniM3
   11
    1NFD    N01    1   0.336  -0.035  -0.035
    1NFD    C01    2   0.050  -0.021   0.132
    1NFD    C02    3   0.141   0.304  -0.019
    1NFD    N02    4  -0.106   0.240   0.168
    1NFD    P01    5  -0.233   0.398   0.039
    1NFD    P02    6  -0.177  -0.078   0.149
    1NFD    P03    7  -0.393  -0.178   0.045
    1NFD    P04    8  -0.237  -0.112  -0.149
    1NFD    N03    9  -0.035  -0.022  -0.219
    1NFD    N04   10   0.109  -0.231   0.179
    1NFD    P05   11   0.146  -0.436   0.059
  10.00000  10.00000  10.00000
