DSPE-PEG 2000 Energy Minimization t= 1689.00000 step= 1689
   60
    1PEL    NH3    1   0.937   1.905   1.133
    1PEL    PO4    2   0.901   1.817   0.658
    1PEL    GL1    3   1.208   1.724   0.322
    1PEL    GL2    4   1.123   1.609  -0.027
    1PEL    C1A    5   1.552   1.439   0.285
    1PEL    C2A    6   1.544   1.001   0.388
    1PEL    C3A    7   1.187   0.734   0.340
    1PEL    C4A    8   0.873   0.821   0.025
    1PEL    C5A    9   0.833   1.205  -0.235
    1PEL    C1B   10   1.078   1.247   0.241
    1PEL    C2B   11   1.134   1.156   0.677
    1PEL    C3B   12   1.066   1.325   1.111
    1PEL    C4B   13   1.105   1.498   1.546
    1PEL    C5B   14   1.258   1.805   1.875
    1PEL     O1   15   0.990   1.981   1.448
    1PEL     O1   16   0.790   1.905   1.695
    1PEL     O1   17   0.555   2.117   1.771
    1PEL     O1   18   0.611   2.413   1.647
    1PEL     O1   19   0.930   2.476   1.622
    1PEL     O1   20   1.116   2.311   1.833
    1PEL     O1   21   0.986   2.185   2.106
    1PEL     O1   22   1.136   2.105   2.388
    1PEL     O1   23   1.342   2.249   2.604
    1PEL     O1   24   1.334   2.510   2.806
    1PEL     O1   25   1.432   2.552   3.119
    1PEL     O1   26   1.397   2.343   3.369
    1PEL     O1   27   1.592   2.255   3.618
    1PEL     O1   28   1.776   2.455   3.797
    1PEL     O1   29   1.948   2.670   3.625
    1PEL     O1   30   1.822   2.794   3.354
    1PEL     O1   31   1.677   3.084   3.367
    1PEL     O1   32   1.811   3.291   3.580
    1PEL     O1   33   2.030   3.205   3.808
    1PEL     O1   34   2.087   2.979   4.039
    1PEL     O1   35   2.190   2.669   4.063
    1PEL     O1   36   2.017   2.458   4.239
    1PEL     O1   37   1.721   2.568   4.317
    1PEL     O1   38   1.607   2.839   4.176
    1PEL     O1   39   1.589   2.935   3.865
    1PEL     O1   40   1.403   2.764   3.663
    1PEL     O1   41   1.225   2.540   3.820
    1PEL     O1   42   1.326   2.358   4.073
    1PEL     O1   43   1.551   2.122   4.116
    1PEL     O1   44   1.743   2.055   4.373
    1PEL     O1   45   1.911   1.787   4.454
    1PEL     O1   46   1.775   1.530   4.602
    1PEL     O1   47   1.492   1.581   4.752
    1PEL     O1   48   1.430   1.865   4.900
    1PEL     O1   49   1.624   2.124   4.863
    1PEL     O1   50   1.944   2.064   4.873
    1PEL     O1   51   2.017   1.765   4.982
    1PEL     O1   52   1.814   1.612   5.188
    1PEL     O1   53   1.656   1.328   5.154
    1PEL     O1   54   1.722   1.124   4.909
    1PEL     O1   55   2.025   1.026   4.838
    1PEL     O1   56   2.186   0.803   5.017
    1PEL     O1   57   2.135   0.733   5.333
    1PEL     O1   58   2.367   0.640   5.545
    1PEL     O1   59   2.618   0.441   5.476
    1PEL     NH   60   2.611   0.167   5.294
   3.05300   3.89900   6.41400
