[moleculetype]
; molname 	nrexcl
  PEL            1

[atoms]
; id 	type 	resnr 	residu 	atom 	cgnr 	charge
1 	Q4p 	 1 	PEL 	NH3 	 1 	1.0 	
2 	Q5 	 1 	PEL 	PO4 	 2 	-1.0 	
3 	SN4a 	 1 	PEL 	GL1 	 3 	0 	
4 	N4a 	 1 	PEL 	GL2 	 4 	0 	
5 	C1 	 1 	PEL 	C1A 	 5 	0 	
6 	C1 	 1 	PEL 	C2A 	 6 	0 	
7 	C1 	 1 	PEL 	C3A 	 7 	0 	
8 	C1 	 1 	PEL 	C4A 	 8 	0
9 	C1 	 1 	PEL 	C5A 	 9 	0 	
10 	C1 	 1 	PEL 	C1B 	10 	0 	
11 	C1 	 1 	PEL 	C2B 	11 	0 	
12 	C1 	 1 	PEL 	C3B 	12 	0 	
13 	C1 	 1 	PEL 	C4B 	13 	0
14 	C1 	 1 	PEL 	C5B 	14 	0 
15	SN1	1	PEL	O1	1	0.000	;	COI
16	SN1	1	PEL	O1	2	0.000	;	COI
17	SN1	1	PEL	O1	3	0.000	;	COI
18	SN1	1	PEL	O1	4	0.000	;	COI
19	SN1	1	PEL	O1	5	0.000	;	COI
20	SN1	1	PEL	O1	6	0.000	;	COI
21	SN1	1	PEL	O1	7	0.000	;	COI
22	SN1	1	PEL	O1	8	0.000	;	COI
23	SN1	1	PEL	O1	9	0.000	;	COI
24	SN1	1	PEL	O1	10	0.000	;	COI
25	SN1	1	PEL	O1	11	0.000	;	COI
26	SN1	1	PEL	O1	12	0.000	;	COI
27	SN1	1	PEL	O1	13	0.000	;	COI
28	SN1	1	PEL	O1	14	0.000	;	COI
29	SN1	1	PEL	O1	15	0.000	;	COI
30	SN1	1	PEL	O1	16	0.000	;	COI
31	SN1	1	PEL	O1	17	0.000	;	COI
32	SN1	1	PEL	O1	18	0.000	;	COI
33	SN1	1	PEL	O1	19	0.000	;	COI
34	SN1	1	PEL	O1	20	0.000	;	COI
35	SN1	1	PEL	O1	21	0.000	;	COI
36	SN1	1	PEL	O1	22	0.000	;	COI
37	SN1	1	PEL	O1	23	0.000	;	COI
38	SN1	1	PEL	O1	24	0.000	;	COI
39	SN1	1	PEL	O1	25	0.000	;	COI
40	SN1	1	PEL	O1	26	0.000	;	COI
41	SN1	1	PEL	O1	27	0.000	;	COI
42	SN1	1	PEL	O1	28	0.000	;	COI
43	SN1	1	PEL	O1	29	0.000	;	COI
44	SN1	1	PEL	O1	30	0.000	;	COI
45	SN1	1	PEL	O1	31	0.000	;	COI
46	SN1	1	PEL	O1	32	0.000	;	COI
47	SN1	1	PEL	O1	33	0.000	;	COI
48	SN1	1	PEL	O1	34	0.000	;	COI
49	SN1	1	PEL	O1	35	0.000	;	COI
50	SN1	1	PEL	O1	36	0.000	;	COI
51	SN1	1	PEL	O1	37	0.000	;	COI
52	SN1	1	PEL	O1	38	0.000	;	COI
53	SN1	1	PEL	O1	39	0.000	;	COI
54	SN1	1	PEL	O1	40	0.000	;	COI
55	SN1	1	PEL	O1	41	0.000	;	COI
56	SN1	1	PEL	O1	42	0.000	;	COI
57	SN1	1	PEL	O1	43	0.000	;	COI
58	SN1	1	PEL	O1	44	0.000	;	COI
59	SN1	1	PEL	O1	45	0.000	;	COI
60  SN6d 1  PEL NH  46  0.000   ;   COI


[bonds]
; i j 	funct 	length 	force.c.
1  2 	1 	0.40 	7000 	
2  3 	1 	0.42 	1350 	
3  4 	1 	0.312 	2500 	
3  5 	1 	0.47 	5000 	
5  6 	1 	0.47 	3800 	
6  7 	1 	0.47 	3800 	
7  8 	1 	0.47 	3800
8  9 	1 	0.47 	3800 	
4 10 	1 	0.47 	3600 	
10 11 	1 	0.47 	3800 	
11 12 	1 	0.47 	3800 	
12 13 	1 	0.47 	3800
13 14 	1 	0.47 	3800 
1	15	1	0.330	17000	
15	16	1	0.330	17000
16	17	1	0.330	17000
17	18	1	0.330	17000
18	19	1	0.330	17000
19	20	1	0.330	17000
20	21	1	0.330	17000
21	22	1	0.330	17000
22	23	1	0.330	17000
23	24	1	0.330	17000
24	25	1	0.330	17000
25	26	1	0.330	17000
26	27	1	0.330	17000
27	28	1	0.330	17000
28	29	1	0.330	17000
29	30	1	0.330	17000
30	31	1	0.330	17000
31	32	1	0.330	17000
32	33	1	0.330	17000
33	34	1	0.330	17000
34	35	1	0.330	17000
35	36	1	0.330	17000
36	37	1	0.330	17000
37	38	1	0.330	17000
38	39	1	0.330	17000
39	40	1	0.330	17000
40	41	1	0.330	17000
41	42	1	0.330	17000
42	43	1	0.330	17000
43	44	1	0.330	17000
44	45	1	0.330	17000
45	46	1	0.330	17000
46	47	1	0.330	17000
47	48	1	0.330	17000
48	49	1	0.330	17000
49	50	1	0.330	17000
50	51	1	0.330	17000
51	52	1	0.330	17000
52	53	1	0.330	17000
53	54	1	0.330	17000
54	55	1	0.330	17000
55	56	1	0.330	17000
56	57	1	0.330	17000
57	58	1	0.330	17000
58	59	1	0.330	17000
59	60	1	0.330	17000


[angles]
; i j k 	funct 	angle 	force.c.
2  3  4 	2 	120.0 	25.0 	
2  3  5 	2 	180.0 	25.0 	
3  5  6 	2 	180.0 	25.0 	
5  6  7 	2 	180.0 	25.0 	
6  7  8 	2 	180.0 	25.0
7  8  9	2 	180.0 	25.0 	
4 10 11 	2 	180.0 	25.0 	
10 11 12 	2 	180.0 	25.0 	
11 12 13 	2 	180.0 	25.0
12 13 14 	2 	180.0 	25.0
1 	15	16	2	130.00	85	
15	16	17	2	130.00	85
16	17	18	2	130.00	85
17	18	19	2	130.00	85
18	19	20	2	130.00	85
19	20	21	2	130.00	85
20	21	22	2	130.00	85
21	22	23	2	130.00	85
22	23	24	2	130.00	85
23	24	25	2	130.00	85
24	25	26	2	130.00	85
25	26	27	2	130.00	85
26	27	28	2	130.00	85
27	28	29	2	130.00	85
28	29	30	2	130.00	85
29	30	31	2	130.00	85
30	31	32	2	130.00	85
31	32	33	2	130.00	85
32	33	34	2	130.00	85
33	34	35	2	130.00	85
34	35	36	2	130.00	85
35	36	37	2	130.00	85
36	37	38	2	130.00	85
37	38	39	2	130.00	85
38	39	40	2	130.00	85
39	40	41	2	130.00	85
40	41	42	2	130.00	85
41	42	43	2	130.00	85
42	43	44	2	130.00	85
43	44	45	2	130.00	85
44	45	46	2	130.00	85
45	46	47	2	130.00	85
46	47	48	2	130.00	85
47	48	49	2	130.00	85
48	49	50	2	130.00	85
49	50	51	2	130.00	85
50	51	52	2	130.00	85
51	52	53	2	130.00	85
52	53	54	2	130.00	85
53	54	55	2	130.00	85
54	55	56	2	130.00	85
55	56	57	2	130.00	85
56	57	58	2	130.00	85
57	58	59	2	130.00	85
58	59	60	2	130.00	85


[dihedrals]
15 16 17 18    1        180.00    1.96   1
15 16 17 18    1            0    0.18   2  
15 16 17 18    1        0    0.33   3 
15 16 17 18    1            0    0.12   4 
16 17 18 19    1        180.00    1.96   1
16 17 18 19    1            0    0.18   2  
16 17 18 19    1        0    0.33   3 
16 17 18 19    1            0    0.12   4 
17 18 19 20    1        180.00    1.96   1
17 18 19 20    1                0    0.18   2  
17 18 19 20    1         0    0.33   3
17 18 19 20    1                0    0.12   4 
18 19 20 21    1       180.00    1.96   1
18 19 20 21    1                0    0.18   2
18 19 20 21    1        0    0.33   3
18 19 20 21    1                0    0.12   4   
19 20 21 22    1        180.00    1.96   1
19 20 21 22    1               0    0.18   2
19 20 21 22    1         0    0.33   3
19 20 21 22    1               0    0.12   4   
20 21 22 23    1        180.00    1.96   1
20 21 22 23    1               0    0.18   2
20 21 22 23    1         0    0.33   3
20 21 22 23    1               0    0.12   4   
21 22 23 24    1        180.00    1.96   1
21 22 23 24    1             0    0.18   2  
21 22 23 24    1         0    0.33   3
21 22 23 24    1             0    0.12   4 
22 23 24 25    1        180.00    1.96   1
22 23 24 25    1           0    0.18   2  
22 23 24 25    1         0    0.33   3
22 23 24 25    1           0    0.12   4 
23 24 25 26    1        180.00    1.96   1
23 24 25 26    1              0    0.18   2 
23 24 25 26    1         0    0.33   3
23 24 25 26    1              0    0.12   4  
24 25 26 27    1             180.00    1.96   1
24 25 26 27    1           0    0.18   2  
24 25 26 27    1              0    0.33   3
24 25 26 27    1           0    0.12   4 
25 26 27 28    1         180.00    1.96   1
25 26 27 28    1           0    0.18   2  
25 26 27 28    1          0    0.33   3
25 26 27 28    1           0    0.12   4 
26 27 28 29    1         180.00    1.96   1
26 27 28 29    1              0    0.18   2 
26 27 28 29    1          0    0.33   3
26 27 28 29    1              0    0.12   4  
27 28 29 30    1        180.00    1.96   1
27 28 29 30    1             0    0.18   2  
27 28 29 30    1         0    0.33   3
27 28 29 30    1             0    0.12   4 
28 29 30 31    1         180.00    1.96   1
28 29 30 31    1             0    0.18   2  
28 29 30 31    1          0    0.33   3
28 29 30 31    1             0    0.12   4 
29 30 31 32    1        180.00    1.96   1
29 30 31 32    1              0    0.18   2 
29 30 31 32    1         0    0.33   3
29 30 31 32    1              0    0.12   4  
30 31 32 33    1       180.00    1.96   1
30 31 32 33    1              0    0.18   2  
30 31 32 33    1        0    0.33   3
30 31 32 33    1              0    0.12   4 
31 32 33 34    1        180.00    1.96   1
31 32 33 34    1             0    0.18   2  
31 32 33 34    1         0    0.33   3
31 32 33 34    1             0    0.12   4 
32 33 34 35    1        180.00    1.96   1
32 33 34 35    1          0    0.18   2  
32 33 34 35    1        0    0.33   3 
32 33 34 35    1        0    0.12   4 
33 34 35 36    1       180.00    1.96   1
33 34 35 36    1            0    0.18   2 
33 34 35 36    1        0    0.33   3
33 34 35 36    1            0    0.12   4  
34 35 36 37    1        180.00    1.96   1
34 35 36 37    1            0    0.18   2  
34 35 36 37    1        0    0.33   3 
34 35 36 37    1            0    0.12   4 
35 36 37 38    1       180.00    1.96   1
35 36 37 38    1              0    0.18   2  
35 36 37 38    1        0    0.33   3
35 36 37 38    1              0    0.12   4 
36 37 38 39    1          180.00    1.96   1
36 37 38 39    1            0    0.18   2  
36 37 38 39    1        0    0.33   3   
36 37 38 39    1            0    0.12   4 
37 38 39 40    1          180.00    1.96   1
37 38 39 40    1            0    0.18   2  
37 38 39 40    1        0    0.33   3   
37 38 39 40    1            0    0.12   4 
38 39 40 41    1          180.00    1.96   1
38 39 40 41    1            0    0.18   2  
38 39 40 41    1        0    0.33   3   
38 39 40 41    1            0    0.12   4 
39 40 41 42    1          180.00    1.96   1
39 40 41 42    1            0    0.18   2         
39 40 41 42    1        0    0.33   3           
39 40 41 42    1            0    0.12   4        
40 41 42 43    1       180.00    1.96   1
40 41 42 43    1              0    0.18   2  
40 41 42 43    1        0    0.33   3
40 41 42 43    1              0    0.12   4 
41 42 43 44    1        180.00    1.96   1
41 42 43 44    1             0    0.18   2  
41 42 43 44    1         0    0.33   3
41 42 43 44    1             0    0.12   4 
42 43 44 45    1        180.00    1.96   1
42 43 44 45    1          0    0.18   2  
42 43 44 45    1        0    0.33   3 
42 43 44 45    1        0    0.12   4 
43 44 45 46    1       180.00    1.96   1
43 44 45 46    1            0    0.18   2 
43 44 45 46    1        0    0.33   3
43 44 45 46    1            0    0.12   4  
44 45 46 47    1        180.00    1.96   1
44 45 46 47    1            0    0.18   2  
44 45 46 47    1        0    0.33   3 
44 45 46 47    1            0    0.12   4 
45 46 47 48    1       180.00    1.96   1
45 46 47 48    1              0    0.18   2  
45 46 47 48    1        0    0.33   3
45 46 47 48    1              0    0.12   4 
46 47 48 49    1          180.00    1.96   1
46 47 48 49    1            0    0.18   2  
46 47 48 49    1        0    0.33   3   
46 47 48 49    1            0    0.12   4 
47 48 49 50    1       180.00    1.96   1
47 48 49 50    1              0    0.18   2  
47 48 49 50    1        0    0.33   3
47 48 49 50    1              0    0.12   4 
48 49 50 51    1        180.00    1.96   1
48 49 50 51    1             0    0.18   2  
48 49 50 51    1         0    0.33   3
48 49 50 51    1             0    0.12   4 
49 50 51 52    1        180.00    1.96   1
49 50 51 52    1          0    0.18   2  
49 50 51 52    1        0    0.33   3 
49 50 51 52    1        0    0.12   4 
50 51 52 53    1       180.00    1.96   1
50 51 52 53    1            0    0.18   2 
50 51 52 53    1        0    0.33   3
50 51 52 53    1            0    0.12   4  
51 52 53 54    1        180.00    1.96   1
51 52 53 54    1            0    0.18   2  
51 52 53 54    1        0    0.33   3 
51 52 53 54    1            0    0.12   4 
52 53 54 55    1       180.00    1.96   1
52 53 54 55    1              0    0.18   2  
52 53 54 55    1        0    0.33   3
52 53 54 55    1              0    0.12   4 
53 54 55 56    1          180.00    1.96   1
53 54 55 56    1            0    0.18   2  
53 54 55 56    1        0    0.33   3   
53 54 55 56    1            0    0.12   4 
54 55 56 57    1       180.00    1.96   1
54 55 56 57    1              0    0.18   2  
54 55 56 57    1        0    0.33   3
54 55 56 57    1              0    0.12   4 
55 56 57 58    1        180.00    1.96   1
55 56 57 58    1             0    0.18   2  
55 56 57 58    1         0    0.33   3
55 56 57 58    1             0    0.12   4 
56 57 58 59    1        180.00    1.96   1
56 57 58 59    1          0    0.18   2  
56 57 58 59    1        0    0.33   3 
56 57 58 59    1        0    0.12   4
57 58 59 60    1        180.00    1.96   1
57 58 59 60    1          0    0.18   2  
57 58 59 60    1        0    0.33   3 
57 58 59 60    1        0    0.12   4  

#ifdef POSRES
[ position_restraints ]
;  i funct       fcx        fcy        fcz
   1    1       800       800       800
   2    1       800       800       800
#endif

