;define                   = -DFLEXIBLE
title                    = Martini_NPT_10fs
integrator               = md
dt                       = 0.018 
nsteps                   = 277777
nstcomm                  = 100

nstxout                  = 0
nstvout                  = 0
nstfout                  = 0
nstlog                   = 10000 
nstenergy                = 100   
nstxtcout                = 1000 
xtc_precision            = 100

cutoff-scheme            = Verlet
nstlist                  = 40
ns_type                  = grid
pbc                      = xyz
verlet-buffer-tolerance  = 0.005

coulombtype              = reaction-field
rcoulomb                 = 1.1
epsilon_r                = 15	
epsilon_rf               = 0 
vdw_type                 = cutoff 
rvdw                     = 1.1 

tcoupl                   = v-rescale 
tc-grps                  = LIPD W
tau_t                    = 1.0  1.0 
ref_t                    = 298  298 
Pcoupl                   = Berendsen
Pcoupltype               = isotropic
tau_p                    = 12.0 
compressibility          = 3e-4
ref_p                    = 1.0 

gen_vel                  = no
gen_temp                 = 298

constraints              = none 
constraint_algorithm     = Lincs
continuation             = yes
lincs_iter               = 2
lincs_order              = 8
lincs_warnangle          = 30
