title                    = Martini_NVT
integrator               = md
dt                       = 0.010
nsteps                   = 500000
nstcomm                  = 100

nstxout                  = 0
nstvout                  = 0
nstfout                  = 0
nstlog                   = 10000 
nstenergy                = 100  
nstxtcout                = 1000  
xtc_precision            = 100

cutoff-scheme            = Verlet
nstlist                  = 20
ns_type                  = grid
pbc                      = xyz
verlet-buffer-tolerance  = 0.005

coulombtype              = reaction-field
rcoulomb                 = 1.1
epsilon_r                = 15
epsilon_rf               = 0 
vdw_type                 = cutoff
vdw-modifier             = Potential-shift-verlet 
rvdw                     = 1.1 

tcoupl                   = v-rescale 
tc-grps                  = LIPD W
tau_t                    = 1.0  1.0 
ref_t                    = 298 298 
Pcoupl                   = no

gen_vel                  = yes
gen_temp                 = 298
gen_seed                 = 473529

constraints              = none 
constraint_algorithm     = Lincs
continuation             = no
lincs_order              = 4
lincs_warnangle          = 30
